<?xml version="1.0" encoding="UTF-8"?>

<!-- generated on Wed Mar  8 14:23:17 2017 by SUMO Version 0.25.0
<?xml version="1.0" encoding="UTF-8"?>

<configuration xmlns:xsi="http://www.w3.org/2001/XMLSchema-instance" xsi:noNamespaceSchemaLocation="http://sumo.dlr.de/xsd/sumoConfiguration.xsd">

    <input>
        <net-file value="../paris/paris.net.xml"/>
        <route-files value="../paris/paris.rou.xml"/>
        <additional-files value="../paris/paris.add.xml,../paris/paris.poly.xml"/>
    </input>

    <output>
        <tripinfo-output value="tripinfo.out.xml"/>
        <save-state.prefix value="../paris/state"/>
    </output>

    <time>
        <begin value="0"/>
        <end value="3400"/>
    </time>

    <processing>
        <time-to-teleport value="-1"/>
        <lanechange.allow-swap value="true"/>
    </processing>

    <report>
        <no-step-log value="true"/>
    </report>

    <emissions>
        <phemlight-path value="../paris/./PHEMlight/"/>
        <device.emissions.probability value="1"/>
    </emissions>

    <traci_server>
        <remote-port value="8859"/>
    </traci_server>

    <random_number>
        <seed value="6521"/>
    </random_number>

</configuration>
-->

<tripinfos xmlns:xsi="http://www.w3.org/2001/XMLSchema-instance" xsi:noNamespaceSchemaLocation="http://sumo.dlr.de/xsd/tripinfo_file.xsd">
</tripinfos>
